Title: ** sch_path: /foss/designs/daci2025/opamp/tb_opamp_closeloop.sch
Date: Wed May 28 02:51:18  2025
Plotname: Integrated Noise
Flags: real
No. Variables: 307
No. Points: 1
Variables:
	0	v(onoise_total.m.x1.xm3.msky130_fd_pr__nfet_01v8.rd)	voltage
	1	@m.x1.xm1.msky130_fd_pr__pfet_01v8_lvt[gds]	admittance
	2	@m.x1.xm1.msky130_fd_pr__pfet_01v8_lvt[gm]	admittance
	3	i(@m.x1.xm1.msky130_fd_pr__pfet_01v8_lvt[id])	current
	4	v(@m.x1.xm1.msky130_fd_pr__pfet_01v8_lvt[vds])	voltage
	5	v(@m.x1.xm1.msky130_fd_pr__pfet_01v8_lvt[vdsat])	voltage
	6	v(@m.x1.xm1.msky130_fd_pr__pfet_01v8_lvt[vgs])	voltage
	7	v(@m.x1.xm1.msky130_fd_pr__pfet_01v8_lvt[vth])	voltage
	8	@m.x1.xm2.msky130_fd_pr__pfet_01v8_lvt[gds]	admittance
	9	@m.x1.xm2.msky130_fd_pr__pfet_01v8_lvt[gm]	admittance
	10	i(@m.x1.xm2.msky130_fd_pr__pfet_01v8_lvt[id])	current
	11	v(@m.x1.xm2.msky130_fd_pr__pfet_01v8_lvt[vds])	voltage
	12	v(@m.x1.xm2.msky130_fd_pr__pfet_01v8_lvt[vdsat])	voltage
	13	v(@m.x1.xm2.msky130_fd_pr__pfet_01v8_lvt[vgs])	voltage
	14	v(@m.x1.xm2.msky130_fd_pr__pfet_01v8_lvt[vth])	voltage
	15	@m.x1.xm3.msky130_fd_pr__nfet_01v8[gds]	admittance
	16	@m.x1.xm3.msky130_fd_pr__nfet_01v8[gm]	admittance
	17	i(@m.x1.xm3.msky130_fd_pr__nfet_01v8[id])	current
	18	v(@m.x1.xm3.msky130_fd_pr__nfet_01v8[vds])	voltage
	19	v(@m.x1.xm3.msky130_fd_pr__nfet_01v8[vdsat])	voltage
	20	v(@m.x1.xm3.msky130_fd_pr__nfet_01v8[vgs])	voltage
	21	v(@m.x1.xm3.msky130_fd_pr__nfet_01v8[vth])	voltage
	22	@m.x1.xm4.msky130_fd_pr__nfet_01v8[gds]	admittance
	23	@m.x1.xm4.msky130_fd_pr__nfet_01v8[gm]	admittance
	24	i(@m.x1.xm4.msky130_fd_pr__nfet_01v8[id])	current
	25	v(@m.x1.xm4.msky130_fd_pr__nfet_01v8[vds])	voltage
	26	v(@m.x1.xm4.msky130_fd_pr__nfet_01v8[vdsat])	voltage
	27	v(@m.x1.xm4.msky130_fd_pr__nfet_01v8[vgs])	voltage
	28	v(@m.x1.xm4.msky130_fd_pr__nfet_01v8[vth])	voltage
	29	@m.x1.xm5.msky130_fd_pr__pfet_01v8[gds]	admittance
	30	@m.x1.xm5.msky130_fd_pr__pfet_01v8[gm]	admittance
	31	i(@m.x1.xm5.msky130_fd_pr__pfet_01v8[id])	current
	32	v(@m.x1.xm5.msky130_fd_pr__pfet_01v8[vds])	voltage
	33	v(@m.x1.xm5.msky130_fd_pr__pfet_01v8[vdsat])	voltage
	34	v(@m.x1.xm5.msky130_fd_pr__pfet_01v8[vgs])	voltage
	35	v(@m.x1.xm5.msky130_fd_pr__pfet_01v8[vth])	voltage
	36	@m.x1.xm6.msky130_fd_pr__nfet_01v8[gds]	admittance
	37	@m.x1.xm6.msky130_fd_pr__nfet_01v8[gm]	admittance
	38	i(@m.x1.xm6.msky130_fd_pr__nfet_01v8[id])	current
	39	v(@m.x1.xm6.msky130_fd_pr__nfet_01v8[vds])	voltage
	40	v(@m.x1.xm6.msky130_fd_pr__nfet_01v8[vdsat])	voltage
	41	v(@m.x1.xm6.msky130_fd_pr__nfet_01v8[vgs])	voltage
	42	v(@m.x1.xm6.msky130_fd_pr__nfet_01v8[vth])	voltage
	43	@m.x1.xm7.msky130_fd_pr__pfet_01v8[gds]	admittance
	44	@m.x1.xm7.msky130_fd_pr__pfet_01v8[gm]	admittance
	45	i(@m.x1.xm7.msky130_fd_pr__pfet_01v8[id])	current
	46	v(@m.x1.xm7.msky130_fd_pr__pfet_01v8[vds])	voltage
	47	v(@m.x1.xm7.msky130_fd_pr__pfet_01v8[vdsat])	voltage
	48	v(@m.x1.xm7.msky130_fd_pr__pfet_01v8[vgs])	voltage
	49	v(@m.x1.xm7.msky130_fd_pr__pfet_01v8[vth])	voltage
	50	@m.x1.xm8.msky130_fd_pr__pfet_01v8[gds]	admittance
	51	@m.x1.xm8.msky130_fd_pr__pfet_01v8[gm]	admittance
	52	i(@m.x1.xm8.msky130_fd_pr__pfet_01v8[id])	current
	53	v(@m.x1.xm8.msky130_fd_pr__pfet_01v8[vds])	voltage
	54	v(@m.x1.xm8.msky130_fd_pr__pfet_01v8[vdsat])	voltage
	55	v(@m.x1.xm8.msky130_fd_pr__pfet_01v8[vgs])	voltage
	56	v(@m.x1.xm8.msky130_fd_pr__pfet_01v8[vth])	voltage
	57	@m.x1.xm9.msky130_fd_pr__nfet_01v8[gds]	admittance dims=0
	58	@m.x1.xm9.msky130_fd_pr__nfet_01v8[gm]	admittance dims=0
	59	i(@m.x1.xm9.msky130_fd_pr__nfet_01v8[id])	current dims=0
	60	v(@m.x1.xm9.msky130_fd_pr__nfet_01v8[vds])	voltage dims=0
	61	v(@m.x1.xm9.msky130_fd_pr__nfet_01v8[vdsat])	voltage dims=0
	62	v(@m.x1.xm9.msky130_fd_pr__nfet_01v8[vgs])	voltage dims=0
	63	v(@m.x1.xm9.msky130_fd_pr__nfet_01v8[vth])	voltage dims=0
	64	v(inoise_total)	voltage
	65	v(inoise_total.m.x1.xm1.msky130_fd_pr__pfet_01v8_lvt)	voltage
	66	v(inoise_total.m.x1.xm1.msky130_fd_pr__pfet_01v8_lvt.1overf)	voltage
	67	v(inoise_total.m.x1.xm1.msky130_fd_pr__pfet_01v8_lvt.id)	voltage
	68	v(inoise_total.m.x1.xm1.msky130_fd_pr__pfet_01v8_lvt.igb)	voltage
	69	v(inoise_total.m.x1.xm1.msky130_fd_pr__pfet_01v8_lvt.igd)	voltage
	70	v(inoise_total.m.x1.xm1.msky130_fd_pr__pfet_01v8_lvt.igs)	voltage
	71	v(inoise_total.m.x1.xm1.msky130_fd_pr__pfet_01v8_lvt.rbdb)	voltage
	72	v(inoise_total.m.x1.xm1.msky130_fd_pr__pfet_01v8_lvt.rbpb)	voltage
	73	v(inoise_total.m.x1.xm1.msky130_fd_pr__pfet_01v8_lvt.rbpd)	voltage
	74	v(inoise_total.m.x1.xm1.msky130_fd_pr__pfet_01v8_lvt.rbps)	voltage
	75	v(inoise_total.m.x1.xm1.msky130_fd_pr__pfet_01v8_lvt.rbsb)	voltage
	76	v(inoise_total.m.x1.xm1.msky130_fd_pr__pfet_01v8_lvt.rd)	voltage
	77	v(inoise_total.m.x1.xm1.msky130_fd_pr__pfet_01v8_lvt.rg)	voltage
	78	v(inoise_total.m.x1.xm1.msky130_fd_pr__pfet_01v8_lvt.rs)	voltage
	79	v(inoise_total.m.x1.xm2.msky130_fd_pr__pfet_01v8_lvt)	voltage
	80	v(inoise_total.m.x1.xm2.msky130_fd_pr__pfet_01v8_lvt.1overf)	voltage
	81	v(inoise_total.m.x1.xm2.msky130_fd_pr__pfet_01v8_lvt.id)	voltage
	82	v(inoise_total.m.x1.xm2.msky130_fd_pr__pfet_01v8_lvt.igb)	voltage
	83	v(inoise_total.m.x1.xm2.msky130_fd_pr__pfet_01v8_lvt.igd)	voltage
	84	v(inoise_total.m.x1.xm2.msky130_fd_pr__pfet_01v8_lvt.igs)	voltage
	85	v(inoise_total.m.x1.xm2.msky130_fd_pr__pfet_01v8_lvt.rbdb)	voltage
	86	v(inoise_total.m.x1.xm2.msky130_fd_pr__pfet_01v8_lvt.rbpb)	voltage
	87	v(inoise_total.m.x1.xm2.msky130_fd_pr__pfet_01v8_lvt.rbpd)	voltage
	88	v(inoise_total.m.x1.xm2.msky130_fd_pr__pfet_01v8_lvt.rbps)	voltage
	89	v(inoise_total.m.x1.xm2.msky130_fd_pr__pfet_01v8_lvt.rbsb)	voltage
	90	v(inoise_total.m.x1.xm2.msky130_fd_pr__pfet_01v8_lvt.rd)	voltage
	91	v(inoise_total.m.x1.xm2.msky130_fd_pr__pfet_01v8_lvt.rg)	voltage
	92	v(inoise_total.m.x1.xm2.msky130_fd_pr__pfet_01v8_lvt.rs)	voltage
	93	v(inoise_total.m.x1.xm3.msky130_fd_pr__nfet_01v8)	voltage
	94	v(inoise_total.m.x1.xm3.msky130_fd_pr__nfet_01v8.1overf)	voltage
	95	v(inoise_total.m.x1.xm3.msky130_fd_pr__nfet_01v8.id)	voltage
	96	v(inoise_total.m.x1.xm3.msky130_fd_pr__nfet_01v8.igb)	voltage
	97	v(inoise_total.m.x1.xm3.msky130_fd_pr__nfet_01v8.igd)	voltage
	98	v(inoise_total.m.x1.xm3.msky130_fd_pr__nfet_01v8.igs)	voltage
	99	v(inoise_total.m.x1.xm3.msky130_fd_pr__nfet_01v8.rbdb)	voltage
	100	v(inoise_total.m.x1.xm3.msky130_fd_pr__nfet_01v8.rbpb)	voltage
	101	v(inoise_total.m.x1.xm3.msky130_fd_pr__nfet_01v8.rbpd)	voltage
	102	v(inoise_total.m.x1.xm3.msky130_fd_pr__nfet_01v8.rbps)	voltage
	103	v(inoise_total.m.x1.xm3.msky130_fd_pr__nfet_01v8.rbsb)	voltage
	104	v(inoise_total.m.x1.xm3.msky130_fd_pr__nfet_01v8.rd)	voltage
	105	v(inoise_total.m.x1.xm3.msky130_fd_pr__nfet_01v8.rg)	voltage
	106	v(inoise_total.m.x1.xm3.msky130_fd_pr__nfet_01v8.rs)	voltage
	107	v(inoise_total.m.x1.xm4.msky130_fd_pr__nfet_01v8)	voltage
	108	v(inoise_total.m.x1.xm4.msky130_fd_pr__nfet_01v8.1overf)	voltage
	109	v(inoise_total.m.x1.xm4.msky130_fd_pr__nfet_01v8.id)	voltage
	110	v(inoise_total.m.x1.xm4.msky130_fd_pr__nfet_01v8.igb)	voltage
	111	v(inoise_total.m.x1.xm4.msky130_fd_pr__nfet_01v8.igd)	voltage
	112	v(inoise_total.m.x1.xm4.msky130_fd_pr__nfet_01v8.igs)	voltage
	113	v(inoise_total.m.x1.xm4.msky130_fd_pr__nfet_01v8.rbdb)	voltage
	114	v(inoise_total.m.x1.xm4.msky130_fd_pr__nfet_01v8.rbpb)	voltage
	115	v(inoise_total.m.x1.xm4.msky130_fd_pr__nfet_01v8.rbpd)	voltage
	116	v(inoise_total.m.x1.xm4.msky130_fd_pr__nfet_01v8.rbps)	voltage
	117	v(inoise_total.m.x1.xm4.msky130_fd_pr__nfet_01v8.rbsb)	voltage
	118	v(inoise_total.m.x1.xm4.msky130_fd_pr__nfet_01v8.rd)	voltage
	119	v(inoise_total.m.x1.xm4.msky130_fd_pr__nfet_01v8.rg)	voltage
	120	v(inoise_total.m.x1.xm4.msky130_fd_pr__nfet_01v8.rs)	voltage
	121	v(inoise_total.m.x1.xm5.msky130_fd_pr__pfet_01v8)	voltage
	122	v(inoise_total.m.x1.xm5.msky130_fd_pr__pfet_01v8.1overf)	voltage
	123	v(inoise_total.m.x1.xm5.msky130_fd_pr__pfet_01v8.id)	voltage
	124	v(inoise_total.m.x1.xm5.msky130_fd_pr__pfet_01v8.igb)	voltage
	125	v(inoise_total.m.x1.xm5.msky130_fd_pr__pfet_01v8.igd)	voltage
	126	v(inoise_total.m.x1.xm5.msky130_fd_pr__pfet_01v8.igs)	voltage
	127	v(inoise_total.m.x1.xm5.msky130_fd_pr__pfet_01v8.rbdb)	voltage
	128	v(inoise_total.m.x1.xm5.msky130_fd_pr__pfet_01v8.rbpb)	voltage
	129	v(inoise_total.m.x1.xm5.msky130_fd_pr__pfet_01v8.rbpd)	voltage
	130	v(inoise_total.m.x1.xm5.msky130_fd_pr__pfet_01v8.rbps)	voltage
	131	v(inoise_total.m.x1.xm5.msky130_fd_pr__pfet_01v8.rbsb)	voltage
	132	v(inoise_total.m.x1.xm5.msky130_fd_pr__pfet_01v8.rd)	voltage
	133	v(inoise_total.m.x1.xm5.msky130_fd_pr__pfet_01v8.rg)	voltage
	134	v(inoise_total.m.x1.xm5.msky130_fd_pr__pfet_01v8.rs)	voltage
	135	v(inoise_total.m.x1.xm6.msky130_fd_pr__nfet_01v8)	voltage
	136	v(inoise_total.m.x1.xm6.msky130_fd_pr__nfet_01v8.1overf)	voltage
	137	v(inoise_total.m.x1.xm6.msky130_fd_pr__nfet_01v8.id)	voltage
	138	v(inoise_total.m.x1.xm6.msky130_fd_pr__nfet_01v8.igb)	voltage
	139	v(inoise_total.m.x1.xm6.msky130_fd_pr__nfet_01v8.igd)	voltage
	140	v(inoise_total.m.x1.xm6.msky130_fd_pr__nfet_01v8.igs)	voltage
	141	v(inoise_total.m.x1.xm6.msky130_fd_pr__nfet_01v8.rbdb)	voltage
	142	v(inoise_total.m.x1.xm6.msky130_fd_pr__nfet_01v8.rbpb)	voltage
	143	v(inoise_total.m.x1.xm6.msky130_fd_pr__nfet_01v8.rbpd)	voltage
	144	v(inoise_total.m.x1.xm6.msky130_fd_pr__nfet_01v8.rbps)	voltage
	145	v(inoise_total.m.x1.xm6.msky130_fd_pr__nfet_01v8.rbsb)	voltage
	146	v(inoise_total.m.x1.xm6.msky130_fd_pr__nfet_01v8.rd)	voltage
	147	v(inoise_total.m.x1.xm6.msky130_fd_pr__nfet_01v8.rg)	voltage
	148	v(inoise_total.m.x1.xm6.msky130_fd_pr__nfet_01v8.rs)	voltage
	149	v(inoise_total.m.x1.xm7.msky130_fd_pr__pfet_01v8)	voltage
	150	v(inoise_total.m.x1.xm7.msky130_fd_pr__pfet_01v8.1overf)	voltage
	151	v(inoise_total.m.x1.xm7.msky130_fd_pr__pfet_01v8.id)	voltage
	152	v(inoise_total.m.x1.xm7.msky130_fd_pr__pfet_01v8.igb)	voltage
	153	v(inoise_total.m.x1.xm7.msky130_fd_pr__pfet_01v8.igd)	voltage
	154	v(inoise_total.m.x1.xm7.msky130_fd_pr__pfet_01v8.igs)	voltage
	155	v(inoise_total.m.x1.xm7.msky130_fd_pr__pfet_01v8.rbdb)	voltage
	156	v(inoise_total.m.x1.xm7.msky130_fd_pr__pfet_01v8.rbpb)	voltage
	157	v(inoise_total.m.x1.xm7.msky130_fd_pr__pfet_01v8.rbpd)	voltage
	158	v(inoise_total.m.x1.xm7.msky130_fd_pr__pfet_01v8.rbps)	voltage
	159	v(inoise_total.m.x1.xm7.msky130_fd_pr__pfet_01v8.rbsb)	voltage
	160	v(inoise_total.m.x1.xm7.msky130_fd_pr__pfet_01v8.rd)	voltage
	161	v(inoise_total.m.x1.xm7.msky130_fd_pr__pfet_01v8.rg)	voltage
	162	v(inoise_total.m.x1.xm7.msky130_fd_pr__pfet_01v8.rs)	voltage
	163	v(inoise_total.m.x1.xm8.msky130_fd_pr__pfet_01v8)	voltage
	164	v(inoise_total.m.x1.xm8.msky130_fd_pr__pfet_01v8.1overf)	voltage
	165	v(inoise_total.m.x1.xm8.msky130_fd_pr__pfet_01v8.id)	voltage
	166	v(inoise_total.m.x1.xm8.msky130_fd_pr__pfet_01v8.igb)	voltage
	167	v(inoise_total.m.x1.xm8.msky130_fd_pr__pfet_01v8.igd)	voltage
	168	v(inoise_total.m.x1.xm8.msky130_fd_pr__pfet_01v8.igs)	voltage
	169	v(inoise_total.m.x1.xm8.msky130_fd_pr__pfet_01v8.rbdb)	voltage
	170	v(inoise_total.m.x1.xm8.msky130_fd_pr__pfet_01v8.rbpb)	voltage
	171	v(inoise_total.m.x1.xm8.msky130_fd_pr__pfet_01v8.rbpd)	voltage
	172	v(inoise_total.m.x1.xm8.msky130_fd_pr__pfet_01v8.rbps)	voltage
	173	v(inoise_total.m.x1.xm8.msky130_fd_pr__pfet_01v8.rbsb)	voltage
	174	v(inoise_total.m.x1.xm8.msky130_fd_pr__pfet_01v8.rd)	voltage
	175	v(inoise_total.m.x1.xm8.msky130_fd_pr__pfet_01v8.rg)	voltage
	176	v(inoise_total.m.x1.xm8.msky130_fd_pr__pfet_01v8.rs)	voltage
	177	v(inoise_total_r.x1.r7)	voltage
	178	v(inoise_total_r.x1.r7_1overf)	voltage
	179	v(inoise_total_r.x1.r7_thermal)	voltage
	180	v(inoise_total_r1)	voltage
	181	v(inoise_total_r1_1overf)	voltage
	182	v(inoise_total_r1_thermal)	voltage
	183	v(inoise_total_r3)	voltage
	184	v(inoise_total_r3_1overf)	voltage
	185	v(inoise_total_r3_thermal)	voltage
	186	v(onoise_total)	voltage
	187	v(onoise_total.m.x1.xm1.msky130_fd_pr__pfet_01v8_lvt)	voltage
	188	v(onoise_total.m.x1.xm1.msky130_fd_pr__pfet_01v8_lvt.1overf)	voltage
	189	v(onoise_total.m.x1.xm1.msky130_fd_pr__pfet_01v8_lvt.id)	voltage
	190	v(onoise_total.m.x1.xm1.msky130_fd_pr__pfet_01v8_lvt.igb)	voltage
	191	v(onoise_total.m.x1.xm1.msky130_fd_pr__pfet_01v8_lvt.igd)	voltage
	192	v(onoise_total.m.x1.xm1.msky130_fd_pr__pfet_01v8_lvt.igs)	voltage
	193	v(onoise_total.m.x1.xm1.msky130_fd_pr__pfet_01v8_lvt.rbdb)	voltage
	194	v(onoise_total.m.x1.xm1.msky130_fd_pr__pfet_01v8_lvt.rbpb)	voltage
	195	v(onoise_total.m.x1.xm1.msky130_fd_pr__pfet_01v8_lvt.rbpd)	voltage
	196	v(onoise_total.m.x1.xm1.msky130_fd_pr__pfet_01v8_lvt.rbps)	voltage
	197	v(onoise_total.m.x1.xm1.msky130_fd_pr__pfet_01v8_lvt.rbsb)	voltage
	198	v(onoise_total.m.x1.xm1.msky130_fd_pr__pfet_01v8_lvt.rd)	voltage
	199	v(onoise_total.m.x1.xm1.msky130_fd_pr__pfet_01v8_lvt.rg)	voltage
	200	v(onoise_total.m.x1.xm1.msky130_fd_pr__pfet_01v8_lvt.rs)	voltage
	201	v(onoise_total.m.x1.xm2.msky130_fd_pr__pfet_01v8_lvt)	voltage
	202	v(onoise_total.m.x1.xm2.msky130_fd_pr__pfet_01v8_lvt.1overf)	voltage
	203	v(onoise_total.m.x1.xm2.msky130_fd_pr__pfet_01v8_lvt.id)	voltage
	204	v(onoise_total.m.x1.xm2.msky130_fd_pr__pfet_01v8_lvt.igb)	voltage
	205	v(onoise_total.m.x1.xm2.msky130_fd_pr__pfet_01v8_lvt.igd)	voltage
	206	v(onoise_total.m.x1.xm2.msky130_fd_pr__pfet_01v8_lvt.igs)	voltage
	207	v(onoise_total.m.x1.xm2.msky130_fd_pr__pfet_01v8_lvt.rbdb)	voltage
	208	v(onoise_total.m.x1.xm2.msky130_fd_pr__pfet_01v8_lvt.rbpb)	voltage
	209	v(onoise_total.m.x1.xm2.msky130_fd_pr__pfet_01v8_lvt.rbpd)	voltage
	210	v(onoise_total.m.x1.xm2.msky130_fd_pr__pfet_01v8_lvt.rbps)	voltage
	211	v(onoise_total.m.x1.xm2.msky130_fd_pr__pfet_01v8_lvt.rbsb)	voltage
	212	v(onoise_total.m.x1.xm2.msky130_fd_pr__pfet_01v8_lvt.rd)	voltage
	213	v(onoise_total.m.x1.xm2.msky130_fd_pr__pfet_01v8_lvt.rg)	voltage
	214	v(onoise_total.m.x1.xm2.msky130_fd_pr__pfet_01v8_lvt.rs)	voltage
	215	v(onoise_total.m.x1.xm3.msky130_fd_pr__nfet_01v8)	voltage
	216	v(onoise_total.m.x1.xm3.msky130_fd_pr__nfet_01v8.1overf)	voltage
	217	v(onoise_total.m.x1.xm3.msky130_fd_pr__nfet_01v8.id)	voltage
	218	v(onoise_total.m.x1.xm3.msky130_fd_pr__nfet_01v8.igb)	voltage
	219	v(onoise_total.m.x1.xm3.msky130_fd_pr__nfet_01v8.igd)	voltage
	220	v(onoise_total.m.x1.xm3.msky130_fd_pr__nfet_01v8.igs)	voltage
	221	v(onoise_total.m.x1.xm3.msky130_fd_pr__nfet_01v8.rbdb)	voltage
	222	v(onoise_total.m.x1.xm3.msky130_fd_pr__nfet_01v8.rbpb)	voltage
	223	v(onoise_total.m.x1.xm3.msky130_fd_pr__nfet_01v8.rbpd)	voltage
	224	v(onoise_total.m.x1.xm3.msky130_fd_pr__nfet_01v8.rbps)	voltage
	225	v(onoise_total.m.x1.xm3.msky130_fd_pr__nfet_01v8.rbsb)	voltage
	226	v(onoise_total.m.x1.xm3.msky130_fd_pr__nfet_01v8.rg)	voltage
	227	v(onoise_total.m.x1.xm3.msky130_fd_pr__nfet_01v8.rs)	voltage
	228	v(onoise_total.m.x1.xm4.msky130_fd_pr__nfet_01v8)	voltage
	229	v(onoise_total.m.x1.xm4.msky130_fd_pr__nfet_01v8.1overf)	voltage
	230	v(onoise_total.m.x1.xm4.msky130_fd_pr__nfet_01v8.id)	voltage
	231	v(onoise_total.m.x1.xm4.msky130_fd_pr__nfet_01v8.igb)	voltage
	232	v(onoise_total.m.x1.xm4.msky130_fd_pr__nfet_01v8.igd)	voltage
	233	v(onoise_total.m.x1.xm4.msky130_fd_pr__nfet_01v8.igs)	voltage
	234	v(onoise_total.m.x1.xm4.msky130_fd_pr__nfet_01v8.rbdb)	voltage
	235	v(onoise_total.m.x1.xm4.msky130_fd_pr__nfet_01v8.rbpb)	voltage
	236	v(onoise_total.m.x1.xm4.msky130_fd_pr__nfet_01v8.rbpd)	voltage
	237	v(onoise_total.m.x1.xm4.msky130_fd_pr__nfet_01v8.rbps)	voltage
	238	v(onoise_total.m.x1.xm4.msky130_fd_pr__nfet_01v8.rbsb)	voltage
	239	v(onoise_total.m.x1.xm4.msky130_fd_pr__nfet_01v8.rd)	voltage
	240	v(onoise_total.m.x1.xm4.msky130_fd_pr__nfet_01v8.rg)	voltage
	241	v(onoise_total.m.x1.xm4.msky130_fd_pr__nfet_01v8.rs)	voltage
	242	v(onoise_total.m.x1.xm5.msky130_fd_pr__pfet_01v8)	voltage
	243	v(onoise_total.m.x1.xm5.msky130_fd_pr__pfet_01v8.1overf)	voltage
	244	v(onoise_total.m.x1.xm5.msky130_fd_pr__pfet_01v8.id)	voltage
	245	v(onoise_total.m.x1.xm5.msky130_fd_pr__pfet_01v8.igb)	voltage
	246	v(onoise_total.m.x1.xm5.msky130_fd_pr__pfet_01v8.igd)	voltage
	247	v(onoise_total.m.x1.xm5.msky130_fd_pr__pfet_01v8.igs)	voltage
	248	v(onoise_total.m.x1.xm5.msky130_fd_pr__pfet_01v8.rbdb)	voltage
	249	v(onoise_total.m.x1.xm5.msky130_fd_pr__pfet_01v8.rbpb)	voltage
	250	v(onoise_total.m.x1.xm5.msky130_fd_pr__pfet_01v8.rbpd)	voltage
	251	v(onoise_total.m.x1.xm5.msky130_fd_pr__pfet_01v8.rbps)	voltage
	252	v(onoise_total.m.x1.xm5.msky130_fd_pr__pfet_01v8.rbsb)	voltage
	253	v(onoise_total.m.x1.xm5.msky130_fd_pr__pfet_01v8.rd)	voltage
	254	v(onoise_total.m.x1.xm5.msky130_fd_pr__pfet_01v8.rg)	voltage
	255	v(onoise_total.m.x1.xm5.msky130_fd_pr__pfet_01v8.rs)	voltage
	256	v(onoise_total.m.x1.xm6.msky130_fd_pr__nfet_01v8)	voltage
	257	v(onoise_total.m.x1.xm6.msky130_fd_pr__nfet_01v8.1overf)	voltage
	258	v(onoise_total.m.x1.xm6.msky130_fd_pr__nfet_01v8.id)	voltage
	259	v(onoise_total.m.x1.xm6.msky130_fd_pr__nfet_01v8.igb)	voltage
	260	v(onoise_total.m.x1.xm6.msky130_fd_pr__nfet_01v8.igd)	voltage
	261	v(onoise_total.m.x1.xm6.msky130_fd_pr__nfet_01v8.igs)	voltage
	262	v(onoise_total.m.x1.xm6.msky130_fd_pr__nfet_01v8.rbdb)	voltage
	263	v(onoise_total.m.x1.xm6.msky130_fd_pr__nfet_01v8.rbpb)	voltage
	264	v(onoise_total.m.x1.xm6.msky130_fd_pr__nfet_01v8.rbpd)	voltage
	265	v(onoise_total.m.x1.xm6.msky130_fd_pr__nfet_01v8.rbps)	voltage
	266	v(onoise_total.m.x1.xm6.msky130_fd_pr__nfet_01v8.rbsb)	voltage
	267	v(onoise_total.m.x1.xm6.msky130_fd_pr__nfet_01v8.rd)	voltage
	268	v(onoise_total.m.x1.xm6.msky130_fd_pr__nfet_01v8.rg)	voltage
	269	v(onoise_total.m.x1.xm6.msky130_fd_pr__nfet_01v8.rs)	voltage
	270	v(onoise_total.m.x1.xm7.msky130_fd_pr__pfet_01v8)	voltage
	271	v(onoise_total.m.x1.xm7.msky130_fd_pr__pfet_01v8.1overf)	voltage
	272	v(onoise_total.m.x1.xm7.msky130_fd_pr__pfet_01v8.id)	voltage
	273	v(onoise_total.m.x1.xm7.msky130_fd_pr__pfet_01v8.igb)	voltage
	274	v(onoise_total.m.x1.xm7.msky130_fd_pr__pfet_01v8.igd)	voltage
	275	v(onoise_total.m.x1.xm7.msky130_fd_pr__pfet_01v8.igs)	voltage
	276	v(onoise_total.m.x1.xm7.msky130_fd_pr__pfet_01v8.rbdb)	voltage
	277	v(onoise_total.m.x1.xm7.msky130_fd_pr__pfet_01v8.rbpb)	voltage
	278	v(onoise_total.m.x1.xm7.msky130_fd_pr__pfet_01v8.rbpd)	voltage
	279	v(onoise_total.m.x1.xm7.msky130_fd_pr__pfet_01v8.rbps)	voltage
	280	v(onoise_total.m.x1.xm7.msky130_fd_pr__pfet_01v8.rbsb)	voltage
	281	v(onoise_total.m.x1.xm7.msky130_fd_pr__pfet_01v8.rd)	voltage
	282	v(onoise_total.m.x1.xm7.msky130_fd_pr__pfet_01v8.rg)	voltage
	283	v(onoise_total.m.x1.xm7.msky130_fd_pr__pfet_01v8.rs)	voltage
	284	v(onoise_total.m.x1.xm8.msky130_fd_pr__pfet_01v8)	voltage
	285	v(onoise_total.m.x1.xm8.msky130_fd_pr__pfet_01v8.1overf)	voltage
	286	v(onoise_total.m.x1.xm8.msky130_fd_pr__pfet_01v8.id)	voltage
	287	v(onoise_total.m.x1.xm8.msky130_fd_pr__pfet_01v8.igb)	voltage
	288	v(onoise_total.m.x1.xm8.msky130_fd_pr__pfet_01v8.igd)	voltage
	289	v(onoise_total.m.x1.xm8.msky130_fd_pr__pfet_01v8.igs)	voltage
	290	v(onoise_total.m.x1.xm8.msky130_fd_pr__pfet_01v8.rbdb)	voltage
	291	v(onoise_total.m.x1.xm8.msky130_fd_pr__pfet_01v8.rbpb)	voltage
	292	v(onoise_total.m.x1.xm8.msky130_fd_pr__pfet_01v8.rbpd)	voltage
	293	v(onoise_total.m.x1.xm8.msky130_fd_pr__pfet_01v8.rbps)	voltage
	294	v(onoise_total.m.x1.xm8.msky130_fd_pr__pfet_01v8.rbsb)	voltage
	295	v(onoise_total.m.x1.xm8.msky130_fd_pr__pfet_01v8.rd)	voltage
	296	v(onoise_total.m.x1.xm8.msky130_fd_pr__pfet_01v8.rg)	voltage
	297	v(onoise_total.m.x1.xm8.msky130_fd_pr__pfet_01v8.rs)	voltage
	298	v(onoise_total_r.x1.r7)	voltage
	299	v(onoise_total_r.x1.r7_1overf)	voltage
	300	v(onoise_total_r.x1.r7_thermal)	voltage
	301	v(onoise_total_r1)	voltage
	302	v(onoise_total_r1_1overf)	voltage
	303	v(onoise_total_r1_thermal)	voltage
	304	v(onoise_total_r3)	voltage
	305	v(onoise_total_r3_1overf)	voltage
	306	v(onoise_total_r3_thermal)	voltage
Values:
 0	1.032830826022089e-09
	1.759165530900123e-04
	3.015044088596151e-03
	3.713755590158353e-04
	3.829151893743460e-01
	2.150926108014020e-01
	5.786742668984977e-01
	3.703088085059078e-01
	1.044830753666000e-04
	3.054284175265319e-03
	3.670453786415998e-04
	7.664823037150166e-01
	2.024695133295739e-01
	5.616972028048507e-01
	3.703088061740609e-01
	7.474808537506012e-06
	1.442608299800221e-03
	3.713755579649757e-04
	9.787771607006814e-01
	3.968874840406164e-01
	9.787793146789422e-01
	4.939064961556562e-01
	2.098404719455976e-05
	1.417791161749869e-03
	3.670453793837697e-04
	5.952101091476052e-01
	3.968875058813034e-01
	9.787793397939780e-01
	4.939064892996717e-01
	2.297252998760339e-04
	1.032461877284495e-02
	7.384208827295956e-04
	4.383019223520468e-01
	9.478522821002185e-02
	8.867231568438920e-01
	8.868287932106854e-01
	2.703560021219161e-04
	1.839586404881594e-02
	9.279549909103293e-04
	7.830224811163724e-01
	6.103819546111872e-02
	5.952141426182389e-01
	5.799363339522755e-01
	2.129126523719086e-04
	1.268611840411719e-02
	9.279550026362910e-04
	1.016976671695042e+00
	9.559965250376193e-02
	8.867231288190540e-01
	8.849425523629753e-01
	2.406008843197707e-05
	1.374019277463945e-03
	9.999999116537765e-05
	8.867229414908866e-01
	9.541547282367674e-02
	8.867231348242199e-01
	8.853671258534459e-01
	0.000000000000000e+00
	0.000000000000000e+00
	0.000000000000000e+00
	0.000000000000000e+00
	0.000000000000000e+00
	0.000000000000000e+00
	0.000000000000000e+00
	5.292821939487847e-01
	1.324802908427842e-02
	1.617614819709917e-04
	1.270497834363137e-02
	0.000000000000000e+00
	0.000000000000000e+00
	0.000000000000000e+00
	2.657483664114844e-03
	2.080520161064922e-03
	7.132964782976871e-04
	1.041992162339969e-03
	1.039679825322318e-03
	3.709214946413936e-05
	0.000000000000000e+00
	2.529754512530058e-07
	5.618962104475548e-02
	7.690396121155666e-04
	5.462135304277951e-02
	0.000000000000000e+00
	0.000000000000000e+00
	0.000000000000000e+00
	9.660367013081183e-03
	6.868848929652886e-03
	3.007970784088026e-03
	3.440407065767726e-03
	3.432441606803129e-03
	1.419845899076270e-04
	0.000000000000000e+00
	1.591995887275563e-06
	1.277882977725219e-02
	3.391290468482351e-04
	1.141947785754696e-02
	0.000000000000000e+00
	0.000000000000000e+00
	0.000000000000000e+00
	2.646453495919913e-03
	3.994147471589580e-03
	1.353533065525715e-03
	2.002062787170271e-03
	1.995384857243963e-03
	1.423075048045742e-05
	0.000000000000000e+00
	2.624818536111772e-06
	5.989206759066200e-02
	1.542026343988592e-03
	5.571377695312125e-02
	0.000000000000000e+00
	0.000000000000000e+00
	0.000000000000000e+00
	1.120278215199610e-02
	1.504951912386934e-02
	3.900491571301583e-03
	7.543365802588761e-03
	7.518594935206928e-03
	1.452999320488102e-04
	0.000000000000000e+00
	5.903600617743004e-06
	1.152214787035537e-02
	5.499132881070934e-05
	7.998008007047648e-03
	0.000000000000000e+00
	0.000000000000000e+00
	0.000000000000000e+00
	3.157620420170867e-03
	5.737841028199038e-03
	3.068120192734463e-03
	2.873852436670279e-03
	2.867246423189358e-03
	4.307175819432883e-05
	0.000000000000000e+00
	1.569732842417562e-06
	4.375556191715834e-01
	2.106923570955033e-02
	4.260828952067456e-01
	0.000000000000000e+00
	0.000000000000000e+00
	0.000000000000000e+00
	7.341002371263641e-02
	4.652565385482901e-02
	2.870310365292665e-02
	2.334937264733070e-02
	2.323400699146746e-02
	1.350957796480450e-03
	0.000000000000000e+00
	3.031368892952270e-06
	2.726296027073684e-01
	1.503870994494552e-03
	2.611295547821659e-01
	0.000000000000000e+00
	0.000000000000000e+00
	0.000000000000000e+00
	5.872110665939115e-02
	3.864463156911174e-02
	2.111463091930154e-02
	1.935736594330036e-02
	1.931068962714698e-02
	9.901231785737429e-04
	0.000000000000000e+00
	3.788845951430834e-06
	1.642886571011966e-02
	9.141409252641874e-05
	1.518180807423980e-02
	0.000000000000000e+00
	0.000000000000000e+00
	0.000000000000000e+00
	4.178103443242961e-03
	3.810279085051260e-03
	4.088689507030082e-04
	1.908469081406477e-03
	1.904035000547463e-03
	4.922435265603519e-05
	0.000000000000000e+00
	3.458680247157509e-07
	7.443237305996579e-02
	0.000000000000000e+00
	7.443237305996579e-02
	3.123122458067905e-04
	0.000000000000000e+00
	3.123122458067905e-04
	3.649295046112143e-02
	0.000000000000000e+00
	3.649295046112143e-02
	2.251233115354192e-04
	8.555988490757221e-05
	3.536101888977484e-05
	7.787023708157521e-05
	0.000000000000000e+00
	0.000000000000000e+00
	0.000000000000000e+00
	8.958911595262585e-07
	1.775235942754614e-06
	8.879778406582729e-07
	8.876181258968845e-07
	8.876179254284460e-07
	1.021495957924736e-08
	0.000000000000000e+00
	1.096007657808159e-09
	8.825880118274604e-05
	4.173155519029766e-05
	7.773140801475485e-05
	0.000000000000000e+00
	0.000000000000000e+00
	0.000000000000000e+00
	8.651296147888517e-07
	1.718899655894541e-06
	8.608621019048096e-07
	8.594503755742316e-07
	8.594496417211361e-07
	6.088721963542199e-09
	0.000000000000000e+00
	1.056010973521333e-09
	1.023074835445602e-04
	6.874443429465089e-05
	7.573170467484202e-05
	0.000000000000000e+00
	0.000000000000000e+00
	0.000000000000000e+00
	8.506393599001058e-07
	1.692759402295967e-06
	8.432714682094125e-07
	8.463799312161449e-07
	8.463796852383257e-07
	0.000000000000000e+00
	1.631354876040397e-09
	1.155043786208273e-04
	7.306611916656569e-05
	8.941140663539308e-05
	0.000000000000000e+00
	0.000000000000000e+00
	0.000000000000000e+00
	1.021980655884271e-06
	2.024265924049687e-06
	1.006541202144940e-06
	1.012135980071289e-06
	1.012131925307416e-06
	4.231493545408251e-09
	0.000000000000000e+00
	1.906626505521260e-09
	2.771426001607267e-05
	3.650339891438285e-06
	2.745179322406535e-05
	0.000000000000000e+00
	0.000000000000000e+00
	0.000000000000000e+00
	4.131663353877457e-07
	7.505450817447310e-07
	3.722657439566313e-07
	3.752736497302685e-07
	3.752722087848448e-07
	3.159646310064110e-09
	0.000000000000000e+00
	2.187069947401190e-10
	2.542603260508253e-05
	8.081943586369155e-06
	2.408648126524130e-05
	0.000000000000000e+00
	0.000000000000000e+00
	0.000000000000000e+00
	5.059405284529191e-07
	6.487382031078463e-07
	3.454677939995756e-07
	3.244797089687945e-07
	3.243323919389066e-07
	8.856003543767777e-09
	0.000000000000000e+00
	2.804623895755872e-10
	1.480560217332667e-05
	9.316425366891654e-07
	1.476166156608009e-05
	0.000000000000000e+00
	0.000000000000000e+00
	0.000000000000000e+00
	3.669784720096417e-07
	4.062687537055832e-07
	2.212281162132709e-07
	2.031931907882988e-07
	2.031148885530263e-07
	5.759298618276605e-09
	0.000000000000000e+00
	1.683634989263252e-10
	2.503613049921387e-05
	8.635130596504896e-06
	2.348569726870702e-05
	0.000000000000000e+00
	0.000000000000000e+00
	0.000000000000000e+00
	3.016552457032816e-07
	5.734981985098078e-07
	2.828873320696416e-07
	2.867495780597197e-07
	2.867489770475755e-07
	1.446666729846582e-09
	0.000000000000000e+00
	2.341341807956722e-10
	3.755075744200627e-05
	0.000000000000000e+00
	3.755075744200627e-05
	8.576491232146776e-05
	0.000000000000000e+00
	8.576491232146776e-05
	2.713035637285591e-05
	0.000000000000000e+00
	2.713035637285591e-05

