Title: ** sch_path: /foss/designs/daci2025/opamp/tb_opamp_closeloop.sch
Date: Wed May 28 23:49:18  2025
Plotname: Integrated Noise
Flags: real
No. Variables: 307
No. Points: 1
Variables:
	0	v(onoise_total.m.x1.xm3.msky130_fd_pr__nfet_01v8.rd)	voltage
	1	@m.x1.xm1.msky130_fd_pr__pfet_01v8_lvt[gds]	admittance
	2	@m.x1.xm1.msky130_fd_pr__pfet_01v8_lvt[gm]	admittance
	3	i(@m.x1.xm1.msky130_fd_pr__pfet_01v8_lvt[id])	current
	4	v(@m.x1.xm1.msky130_fd_pr__pfet_01v8_lvt[vds])	voltage
	5	v(@m.x1.xm1.msky130_fd_pr__pfet_01v8_lvt[vdsat])	voltage
	6	v(@m.x1.xm1.msky130_fd_pr__pfet_01v8_lvt[vgs])	voltage
	7	v(@m.x1.xm1.msky130_fd_pr__pfet_01v8_lvt[vth])	voltage
	8	@m.x1.xm2.msky130_fd_pr__pfet_01v8_lvt[gds]	admittance
	9	@m.x1.xm2.msky130_fd_pr__pfet_01v8_lvt[gm]	admittance
	10	i(@m.x1.xm2.msky130_fd_pr__pfet_01v8_lvt[id])	current
	11	v(@m.x1.xm2.msky130_fd_pr__pfet_01v8_lvt[vds])	voltage
	12	v(@m.x1.xm2.msky130_fd_pr__pfet_01v8_lvt[vdsat])	voltage
	13	v(@m.x1.xm2.msky130_fd_pr__pfet_01v8_lvt[vgs])	voltage
	14	v(@m.x1.xm2.msky130_fd_pr__pfet_01v8_lvt[vth])	voltage
	15	@m.x1.xm3.msky130_fd_pr__nfet_01v8[gds]	admittance
	16	@m.x1.xm3.msky130_fd_pr__nfet_01v8[gm]	admittance
	17	i(@m.x1.xm3.msky130_fd_pr__nfet_01v8[id])	current
	18	v(@m.x1.xm3.msky130_fd_pr__nfet_01v8[vds])	voltage
	19	v(@m.x1.xm3.msky130_fd_pr__nfet_01v8[vdsat])	voltage
	20	v(@m.x1.xm3.msky130_fd_pr__nfet_01v8[vgs])	voltage
	21	v(@m.x1.xm3.msky130_fd_pr__nfet_01v8[vth])	voltage
	22	@m.x1.xm4.msky130_fd_pr__nfet_01v8[gds]	admittance
	23	@m.x1.xm4.msky130_fd_pr__nfet_01v8[gm]	admittance
	24	i(@m.x1.xm4.msky130_fd_pr__nfet_01v8[id])	current
	25	v(@m.x1.xm4.msky130_fd_pr__nfet_01v8[vds])	voltage
	26	v(@m.x1.xm4.msky130_fd_pr__nfet_01v8[vdsat])	voltage
	27	v(@m.x1.xm4.msky130_fd_pr__nfet_01v8[vgs])	voltage
	28	v(@m.x1.xm4.msky130_fd_pr__nfet_01v8[vth])	voltage
	29	@m.x1.xm5.msky130_fd_pr__pfet_01v8[gds]	admittance
	30	@m.x1.xm5.msky130_fd_pr__pfet_01v8[gm]	admittance
	31	i(@m.x1.xm5.msky130_fd_pr__pfet_01v8[id])	current
	32	v(@m.x1.xm5.msky130_fd_pr__pfet_01v8[vds])	voltage
	33	v(@m.x1.xm5.msky130_fd_pr__pfet_01v8[vdsat])	voltage
	34	v(@m.x1.xm5.msky130_fd_pr__pfet_01v8[vgs])	voltage
	35	v(@m.x1.xm5.msky130_fd_pr__pfet_01v8[vth])	voltage
	36	@m.x1.xm6.msky130_fd_pr__nfet_01v8[gds]	admittance
	37	@m.x1.xm6.msky130_fd_pr__nfet_01v8[gm]	admittance
	38	i(@m.x1.xm6.msky130_fd_pr__nfet_01v8[id])	current
	39	v(@m.x1.xm6.msky130_fd_pr__nfet_01v8[vds])	voltage
	40	v(@m.x1.xm6.msky130_fd_pr__nfet_01v8[vdsat])	voltage
	41	v(@m.x1.xm6.msky130_fd_pr__nfet_01v8[vgs])	voltage
	42	v(@m.x1.xm6.msky130_fd_pr__nfet_01v8[vth])	voltage
	43	@m.x1.xm7.msky130_fd_pr__pfet_01v8[gds]	admittance
	44	@m.x1.xm7.msky130_fd_pr__pfet_01v8[gm]	admittance
	45	i(@m.x1.xm7.msky130_fd_pr__pfet_01v8[id])	current
	46	v(@m.x1.xm7.msky130_fd_pr__pfet_01v8[vds])	voltage
	47	v(@m.x1.xm7.msky130_fd_pr__pfet_01v8[vdsat])	voltage
	48	v(@m.x1.xm7.msky130_fd_pr__pfet_01v8[vgs])	voltage
	49	v(@m.x1.xm7.msky130_fd_pr__pfet_01v8[vth])	voltage
	50	@m.x1.xm8.msky130_fd_pr__pfet_01v8[gds]	admittance
	51	@m.x1.xm8.msky130_fd_pr__pfet_01v8[gm]	admittance
	52	i(@m.x1.xm8.msky130_fd_pr__pfet_01v8[id])	current
	53	v(@m.x1.xm8.msky130_fd_pr__pfet_01v8[vds])	voltage
	54	v(@m.x1.xm8.msky130_fd_pr__pfet_01v8[vdsat])	voltage
	55	v(@m.x1.xm8.msky130_fd_pr__pfet_01v8[vgs])	voltage
	56	v(@m.x1.xm8.msky130_fd_pr__pfet_01v8[vth])	voltage
	57	@m.x1.xm9.msky130_fd_pr__nfet_01v8[gds]	admittance dims=0
	58	@m.x1.xm9.msky130_fd_pr__nfet_01v8[gm]	admittance dims=0
	59	i(@m.x1.xm9.msky130_fd_pr__nfet_01v8[id])	current dims=0
	60	v(@m.x1.xm9.msky130_fd_pr__nfet_01v8[vds])	voltage dims=0
	61	v(@m.x1.xm9.msky130_fd_pr__nfet_01v8[vdsat])	voltage dims=0
	62	v(@m.x1.xm9.msky130_fd_pr__nfet_01v8[vgs])	voltage dims=0
	63	v(@m.x1.xm9.msky130_fd_pr__nfet_01v8[vth])	voltage dims=0
	64	v(inoise_total)	voltage
	65	v(inoise_total.m.x1.xm1.msky130_fd_pr__pfet_01v8_lvt)	voltage
	66	v(inoise_total.m.x1.xm1.msky130_fd_pr__pfet_01v8_lvt.1overf)	voltage
	67	v(inoise_total.m.x1.xm1.msky130_fd_pr__pfet_01v8_lvt.id)	voltage
	68	v(inoise_total.m.x1.xm1.msky130_fd_pr__pfet_01v8_lvt.igb)	voltage
	69	v(inoise_total.m.x1.xm1.msky130_fd_pr__pfet_01v8_lvt.igd)	voltage
	70	v(inoise_total.m.x1.xm1.msky130_fd_pr__pfet_01v8_lvt.igs)	voltage
	71	v(inoise_total.m.x1.xm1.msky130_fd_pr__pfet_01v8_lvt.rbdb)	voltage
	72	v(inoise_total.m.x1.xm1.msky130_fd_pr__pfet_01v8_lvt.rbpb)	voltage
	73	v(inoise_total.m.x1.xm1.msky130_fd_pr__pfet_01v8_lvt.rbpd)	voltage
	74	v(inoise_total.m.x1.xm1.msky130_fd_pr__pfet_01v8_lvt.rbps)	voltage
	75	v(inoise_total.m.x1.xm1.msky130_fd_pr__pfet_01v8_lvt.rbsb)	voltage
	76	v(inoise_total.m.x1.xm1.msky130_fd_pr__pfet_01v8_lvt.rd)	voltage
	77	v(inoise_total.m.x1.xm1.msky130_fd_pr__pfet_01v8_lvt.rg)	voltage
	78	v(inoise_total.m.x1.xm1.msky130_fd_pr__pfet_01v8_lvt.rs)	voltage
	79	v(inoise_total.m.x1.xm2.msky130_fd_pr__pfet_01v8_lvt)	voltage
	80	v(inoise_total.m.x1.xm2.msky130_fd_pr__pfet_01v8_lvt.1overf)	voltage
	81	v(inoise_total.m.x1.xm2.msky130_fd_pr__pfet_01v8_lvt.id)	voltage
	82	v(inoise_total.m.x1.xm2.msky130_fd_pr__pfet_01v8_lvt.igb)	voltage
	83	v(inoise_total.m.x1.xm2.msky130_fd_pr__pfet_01v8_lvt.igd)	voltage
	84	v(inoise_total.m.x1.xm2.msky130_fd_pr__pfet_01v8_lvt.igs)	voltage
	85	v(inoise_total.m.x1.xm2.msky130_fd_pr__pfet_01v8_lvt.rbdb)	voltage
	86	v(inoise_total.m.x1.xm2.msky130_fd_pr__pfet_01v8_lvt.rbpb)	voltage
	87	v(inoise_total.m.x1.xm2.msky130_fd_pr__pfet_01v8_lvt.rbpd)	voltage
	88	v(inoise_total.m.x1.xm2.msky130_fd_pr__pfet_01v8_lvt.rbps)	voltage
	89	v(inoise_total.m.x1.xm2.msky130_fd_pr__pfet_01v8_lvt.rbsb)	voltage
	90	v(inoise_total.m.x1.xm2.msky130_fd_pr__pfet_01v8_lvt.rd)	voltage
	91	v(inoise_total.m.x1.xm2.msky130_fd_pr__pfet_01v8_lvt.rg)	voltage
	92	v(inoise_total.m.x1.xm2.msky130_fd_pr__pfet_01v8_lvt.rs)	voltage
	93	v(inoise_total.m.x1.xm3.msky130_fd_pr__nfet_01v8)	voltage
	94	v(inoise_total.m.x1.xm3.msky130_fd_pr__nfet_01v8.1overf)	voltage
	95	v(inoise_total.m.x1.xm3.msky130_fd_pr__nfet_01v8.id)	voltage
	96	v(inoise_total.m.x1.xm3.msky130_fd_pr__nfet_01v8.igb)	voltage
	97	v(inoise_total.m.x1.xm3.msky130_fd_pr__nfet_01v8.igd)	voltage
	98	v(inoise_total.m.x1.xm3.msky130_fd_pr__nfet_01v8.igs)	voltage
	99	v(inoise_total.m.x1.xm3.msky130_fd_pr__nfet_01v8.rbdb)	voltage
	100	v(inoise_total.m.x1.xm3.msky130_fd_pr__nfet_01v8.rbpb)	voltage
	101	v(inoise_total.m.x1.xm3.msky130_fd_pr__nfet_01v8.rbpd)	voltage
	102	v(inoise_total.m.x1.xm3.msky130_fd_pr__nfet_01v8.rbps)	voltage
	103	v(inoise_total.m.x1.xm3.msky130_fd_pr__nfet_01v8.rbsb)	voltage
	104	v(inoise_total.m.x1.xm3.msky130_fd_pr__nfet_01v8.rd)	voltage
	105	v(inoise_total.m.x1.xm3.msky130_fd_pr__nfet_01v8.rg)	voltage
	106	v(inoise_total.m.x1.xm3.msky130_fd_pr__nfet_01v8.rs)	voltage
	107	v(inoise_total.m.x1.xm4.msky130_fd_pr__nfet_01v8)	voltage
	108	v(inoise_total.m.x1.xm4.msky130_fd_pr__nfet_01v8.1overf)	voltage
	109	v(inoise_total.m.x1.xm4.msky130_fd_pr__nfet_01v8.id)	voltage
	110	v(inoise_total.m.x1.xm4.msky130_fd_pr__nfet_01v8.igb)	voltage
	111	v(inoise_total.m.x1.xm4.msky130_fd_pr__nfet_01v8.igd)	voltage
	112	v(inoise_total.m.x1.xm4.msky130_fd_pr__nfet_01v8.igs)	voltage
	113	v(inoise_total.m.x1.xm4.msky130_fd_pr__nfet_01v8.rbdb)	voltage
	114	v(inoise_total.m.x1.xm4.msky130_fd_pr__nfet_01v8.rbpb)	voltage
	115	v(inoise_total.m.x1.xm4.msky130_fd_pr__nfet_01v8.rbpd)	voltage
	116	v(inoise_total.m.x1.xm4.msky130_fd_pr__nfet_01v8.rbps)	voltage
	117	v(inoise_total.m.x1.xm4.msky130_fd_pr__nfet_01v8.rbsb)	voltage
	118	v(inoise_total.m.x1.xm4.msky130_fd_pr__nfet_01v8.rd)	voltage
	119	v(inoise_total.m.x1.xm4.msky130_fd_pr__nfet_01v8.rg)	voltage
	120	v(inoise_total.m.x1.xm4.msky130_fd_pr__nfet_01v8.rs)	voltage
	121	v(inoise_total.m.x1.xm5.msky130_fd_pr__pfet_01v8)	voltage
	122	v(inoise_total.m.x1.xm5.msky130_fd_pr__pfet_01v8.1overf)	voltage
	123	v(inoise_total.m.x1.xm5.msky130_fd_pr__pfet_01v8.id)	voltage
	124	v(inoise_total.m.x1.xm5.msky130_fd_pr__pfet_01v8.igb)	voltage
	125	v(inoise_total.m.x1.xm5.msky130_fd_pr__pfet_01v8.igd)	voltage
	126	v(inoise_total.m.x1.xm5.msky130_fd_pr__pfet_01v8.igs)	voltage
	127	v(inoise_total.m.x1.xm5.msky130_fd_pr__pfet_01v8.rbdb)	voltage
	128	v(inoise_total.m.x1.xm5.msky130_fd_pr__pfet_01v8.rbpb)	voltage
	129	v(inoise_total.m.x1.xm5.msky130_fd_pr__pfet_01v8.rbpd)	voltage
	130	v(inoise_total.m.x1.xm5.msky130_fd_pr__pfet_01v8.rbps)	voltage
	131	v(inoise_total.m.x1.xm5.msky130_fd_pr__pfet_01v8.rbsb)	voltage
	132	v(inoise_total.m.x1.xm5.msky130_fd_pr__pfet_01v8.rd)	voltage
	133	v(inoise_total.m.x1.xm5.msky130_fd_pr__pfet_01v8.rg)	voltage
	134	v(inoise_total.m.x1.xm5.msky130_fd_pr__pfet_01v8.rs)	voltage
	135	v(inoise_total.m.x1.xm6.msky130_fd_pr__nfet_01v8)	voltage
	136	v(inoise_total.m.x1.xm6.msky130_fd_pr__nfet_01v8.1overf)	voltage
	137	v(inoise_total.m.x1.xm6.msky130_fd_pr__nfet_01v8.id)	voltage
	138	v(inoise_total.m.x1.xm6.msky130_fd_pr__nfet_01v8.igb)	voltage
	139	v(inoise_total.m.x1.xm6.msky130_fd_pr__nfet_01v8.igd)	voltage
	140	v(inoise_total.m.x1.xm6.msky130_fd_pr__nfet_01v8.igs)	voltage
	141	v(inoise_total.m.x1.xm6.msky130_fd_pr__nfet_01v8.rbdb)	voltage
	142	v(inoise_total.m.x1.xm6.msky130_fd_pr__nfet_01v8.rbpb)	voltage
	143	v(inoise_total.m.x1.xm6.msky130_fd_pr__nfet_01v8.rbpd)	voltage
	144	v(inoise_total.m.x1.xm6.msky130_fd_pr__nfet_01v8.rbps)	voltage
	145	v(inoise_total.m.x1.xm6.msky130_fd_pr__nfet_01v8.rbsb)	voltage
	146	v(inoise_total.m.x1.xm6.msky130_fd_pr__nfet_01v8.rd)	voltage
	147	v(inoise_total.m.x1.xm6.msky130_fd_pr__nfet_01v8.rg)	voltage
	148	v(inoise_total.m.x1.xm6.msky130_fd_pr__nfet_01v8.rs)	voltage
	149	v(inoise_total.m.x1.xm7.msky130_fd_pr__pfet_01v8)	voltage
	150	v(inoise_total.m.x1.xm7.msky130_fd_pr__pfet_01v8.1overf)	voltage
	151	v(inoise_total.m.x1.xm7.msky130_fd_pr__pfet_01v8.id)	voltage
	152	v(inoise_total.m.x1.xm7.msky130_fd_pr__pfet_01v8.igb)	voltage
	153	v(inoise_total.m.x1.xm7.msky130_fd_pr__pfet_01v8.igd)	voltage
	154	v(inoise_total.m.x1.xm7.msky130_fd_pr__pfet_01v8.igs)	voltage
	155	v(inoise_total.m.x1.xm7.msky130_fd_pr__pfet_01v8.rbdb)	voltage
	156	v(inoise_total.m.x1.xm7.msky130_fd_pr__pfet_01v8.rbpb)	voltage
	157	v(inoise_total.m.x1.xm7.msky130_fd_pr__pfet_01v8.rbpd)	voltage
	158	v(inoise_total.m.x1.xm7.msky130_fd_pr__pfet_01v8.rbps)	voltage
	159	v(inoise_total.m.x1.xm7.msky130_fd_pr__pfet_01v8.rbsb)	voltage
	160	v(inoise_total.m.x1.xm7.msky130_fd_pr__pfet_01v8.rd)	voltage
	161	v(inoise_total.m.x1.xm7.msky130_fd_pr__pfet_01v8.rg)	voltage
	162	v(inoise_total.m.x1.xm7.msky130_fd_pr__pfet_01v8.rs)	voltage
	163	v(inoise_total.m.x1.xm8.msky130_fd_pr__pfet_01v8)	voltage
	164	v(inoise_total.m.x1.xm8.msky130_fd_pr__pfet_01v8.1overf)	voltage
	165	v(inoise_total.m.x1.xm8.msky130_fd_pr__pfet_01v8.id)	voltage
	166	v(inoise_total.m.x1.xm8.msky130_fd_pr__pfet_01v8.igb)	voltage
	167	v(inoise_total.m.x1.xm8.msky130_fd_pr__pfet_01v8.igd)	voltage
	168	v(inoise_total.m.x1.xm8.msky130_fd_pr__pfet_01v8.igs)	voltage
	169	v(inoise_total.m.x1.xm8.msky130_fd_pr__pfet_01v8.rbdb)	voltage
	170	v(inoise_total.m.x1.xm8.msky130_fd_pr__pfet_01v8.rbpb)	voltage
	171	v(inoise_total.m.x1.xm8.msky130_fd_pr__pfet_01v8.rbpd)	voltage
	172	v(inoise_total.m.x1.xm8.msky130_fd_pr__pfet_01v8.rbps)	voltage
	173	v(inoise_total.m.x1.xm8.msky130_fd_pr__pfet_01v8.rbsb)	voltage
	174	v(inoise_total.m.x1.xm8.msky130_fd_pr__pfet_01v8.rd)	voltage
	175	v(inoise_total.m.x1.xm8.msky130_fd_pr__pfet_01v8.rg)	voltage
	176	v(inoise_total.m.x1.xm8.msky130_fd_pr__pfet_01v8.rs)	voltage
	177	v(inoise_total_r.x1.r7)	voltage
	178	v(inoise_total_r.x1.r7_1overf)	voltage
	179	v(inoise_total_r.x1.r7_thermal)	voltage
	180	v(inoise_total_r1)	voltage
	181	v(inoise_total_r1_1overf)	voltage
	182	v(inoise_total_r1_thermal)	voltage
	183	v(inoise_total_r3)	voltage
	184	v(inoise_total_r3_1overf)	voltage
	185	v(inoise_total_r3_thermal)	voltage
	186	v(onoise_total)	voltage
	187	v(onoise_total.m.x1.xm1.msky130_fd_pr__pfet_01v8_lvt)	voltage
	188	v(onoise_total.m.x1.xm1.msky130_fd_pr__pfet_01v8_lvt.1overf)	voltage
	189	v(onoise_total.m.x1.xm1.msky130_fd_pr__pfet_01v8_lvt.id)	voltage
	190	v(onoise_total.m.x1.xm1.msky130_fd_pr__pfet_01v8_lvt.igb)	voltage
	191	v(onoise_total.m.x1.xm1.msky130_fd_pr__pfet_01v8_lvt.igd)	voltage
	192	v(onoise_total.m.x1.xm1.msky130_fd_pr__pfet_01v8_lvt.igs)	voltage
	193	v(onoise_total.m.x1.xm1.msky130_fd_pr__pfet_01v8_lvt.rbdb)	voltage
	194	v(onoise_total.m.x1.xm1.msky130_fd_pr__pfet_01v8_lvt.rbpb)	voltage
	195	v(onoise_total.m.x1.xm1.msky130_fd_pr__pfet_01v8_lvt.rbpd)	voltage
	196	v(onoise_total.m.x1.xm1.msky130_fd_pr__pfet_01v8_lvt.rbps)	voltage
	197	v(onoise_total.m.x1.xm1.msky130_fd_pr__pfet_01v8_lvt.rbsb)	voltage
	198	v(onoise_total.m.x1.xm1.msky130_fd_pr__pfet_01v8_lvt.rd)	voltage
	199	v(onoise_total.m.x1.xm1.msky130_fd_pr__pfet_01v8_lvt.rg)	voltage
	200	v(onoise_total.m.x1.xm1.msky130_fd_pr__pfet_01v8_lvt.rs)	voltage
	201	v(onoise_total.m.x1.xm2.msky130_fd_pr__pfet_01v8_lvt)	voltage
	202	v(onoise_total.m.x1.xm2.msky130_fd_pr__pfet_01v8_lvt.1overf)	voltage
	203	v(onoise_total.m.x1.xm2.msky130_fd_pr__pfet_01v8_lvt.id)	voltage
	204	v(onoise_total.m.x1.xm2.msky130_fd_pr__pfet_01v8_lvt.igb)	voltage
	205	v(onoise_total.m.x1.xm2.msky130_fd_pr__pfet_01v8_lvt.igd)	voltage
	206	v(onoise_total.m.x1.xm2.msky130_fd_pr__pfet_01v8_lvt.igs)	voltage
	207	v(onoise_total.m.x1.xm2.msky130_fd_pr__pfet_01v8_lvt.rbdb)	voltage
	208	v(onoise_total.m.x1.xm2.msky130_fd_pr__pfet_01v8_lvt.rbpb)	voltage
	209	v(onoise_total.m.x1.xm2.msky130_fd_pr__pfet_01v8_lvt.rbpd)	voltage
	210	v(onoise_total.m.x1.xm2.msky130_fd_pr__pfet_01v8_lvt.rbps)	voltage
	211	v(onoise_total.m.x1.xm2.msky130_fd_pr__pfet_01v8_lvt.rbsb)	voltage
	212	v(onoise_total.m.x1.xm2.msky130_fd_pr__pfet_01v8_lvt.rd)	voltage
	213	v(onoise_total.m.x1.xm2.msky130_fd_pr__pfet_01v8_lvt.rg)	voltage
	214	v(onoise_total.m.x1.xm2.msky130_fd_pr__pfet_01v8_lvt.rs)	voltage
	215	v(onoise_total.m.x1.xm3.msky130_fd_pr__nfet_01v8)	voltage
	216	v(onoise_total.m.x1.xm3.msky130_fd_pr__nfet_01v8.1overf)	voltage
	217	v(onoise_total.m.x1.xm3.msky130_fd_pr__nfet_01v8.id)	voltage
	218	v(onoise_total.m.x1.xm3.msky130_fd_pr__nfet_01v8.igb)	voltage
	219	v(onoise_total.m.x1.xm3.msky130_fd_pr__nfet_01v8.igd)	voltage
	220	v(onoise_total.m.x1.xm3.msky130_fd_pr__nfet_01v8.igs)	voltage
	221	v(onoise_total.m.x1.xm3.msky130_fd_pr__nfet_01v8.rbdb)	voltage
	222	v(onoise_total.m.x1.xm3.msky130_fd_pr__nfet_01v8.rbpb)	voltage
	223	v(onoise_total.m.x1.xm3.msky130_fd_pr__nfet_01v8.rbpd)	voltage
	224	v(onoise_total.m.x1.xm3.msky130_fd_pr__nfet_01v8.rbps)	voltage
	225	v(onoise_total.m.x1.xm3.msky130_fd_pr__nfet_01v8.rbsb)	voltage
	226	v(onoise_total.m.x1.xm3.msky130_fd_pr__nfet_01v8.rg)	voltage
	227	v(onoise_total.m.x1.xm3.msky130_fd_pr__nfet_01v8.rs)	voltage
	228	v(onoise_total.m.x1.xm4.msky130_fd_pr__nfet_01v8)	voltage
	229	v(onoise_total.m.x1.xm4.msky130_fd_pr__nfet_01v8.1overf)	voltage
	230	v(onoise_total.m.x1.xm4.msky130_fd_pr__nfet_01v8.id)	voltage
	231	v(onoise_total.m.x1.xm4.msky130_fd_pr__nfet_01v8.igb)	voltage
	232	v(onoise_total.m.x1.xm4.msky130_fd_pr__nfet_01v8.igd)	voltage
	233	v(onoise_total.m.x1.xm4.msky130_fd_pr__nfet_01v8.igs)	voltage
	234	v(onoise_total.m.x1.xm4.msky130_fd_pr__nfet_01v8.rbdb)	voltage
	235	v(onoise_total.m.x1.xm4.msky130_fd_pr__nfet_01v8.rbpb)	voltage
	236	v(onoise_total.m.x1.xm4.msky130_fd_pr__nfet_01v8.rbpd)	voltage
	237	v(onoise_total.m.x1.xm4.msky130_fd_pr__nfet_01v8.rbps)	voltage
	238	v(onoise_total.m.x1.xm4.msky130_fd_pr__nfet_01v8.rbsb)	voltage
	239	v(onoise_total.m.x1.xm4.msky130_fd_pr__nfet_01v8.rd)	voltage
	240	v(onoise_total.m.x1.xm4.msky130_fd_pr__nfet_01v8.rg)	voltage
	241	v(onoise_total.m.x1.xm4.msky130_fd_pr__nfet_01v8.rs)	voltage
	242	v(onoise_total.m.x1.xm5.msky130_fd_pr__pfet_01v8)	voltage
	243	v(onoise_total.m.x1.xm5.msky130_fd_pr__pfet_01v8.1overf)	voltage
	244	v(onoise_total.m.x1.xm5.msky130_fd_pr__pfet_01v8.id)	voltage
	245	v(onoise_total.m.x1.xm5.msky130_fd_pr__pfet_01v8.igb)	voltage
	246	v(onoise_total.m.x1.xm5.msky130_fd_pr__pfet_01v8.igd)	voltage
	247	v(onoise_total.m.x1.xm5.msky130_fd_pr__pfet_01v8.igs)	voltage
	248	v(onoise_total.m.x1.xm5.msky130_fd_pr__pfet_01v8.rbdb)	voltage
	249	v(onoise_total.m.x1.xm5.msky130_fd_pr__pfet_01v8.rbpb)	voltage
	250	v(onoise_total.m.x1.xm5.msky130_fd_pr__pfet_01v8.rbpd)	voltage
	251	v(onoise_total.m.x1.xm5.msky130_fd_pr__pfet_01v8.rbps)	voltage
	252	v(onoise_total.m.x1.xm5.msky130_fd_pr__pfet_01v8.rbsb)	voltage
	253	v(onoise_total.m.x1.xm5.msky130_fd_pr__pfet_01v8.rd)	voltage
	254	v(onoise_total.m.x1.xm5.msky130_fd_pr__pfet_01v8.rg)	voltage
	255	v(onoise_total.m.x1.xm5.msky130_fd_pr__pfet_01v8.rs)	voltage
	256	v(onoise_total.m.x1.xm6.msky130_fd_pr__nfet_01v8)	voltage
	257	v(onoise_total.m.x1.xm6.msky130_fd_pr__nfet_01v8.1overf)	voltage
	258	v(onoise_total.m.x1.xm6.msky130_fd_pr__nfet_01v8.id)	voltage
	259	v(onoise_total.m.x1.xm6.msky130_fd_pr__nfet_01v8.igb)	voltage
	260	v(onoise_total.m.x1.xm6.msky130_fd_pr__nfet_01v8.igd)	voltage
	261	v(onoise_total.m.x1.xm6.msky130_fd_pr__nfet_01v8.igs)	voltage
	262	v(onoise_total.m.x1.xm6.msky130_fd_pr__nfet_01v8.rbdb)	voltage
	263	v(onoise_total.m.x1.xm6.msky130_fd_pr__nfet_01v8.rbpb)	voltage
	264	v(onoise_total.m.x1.xm6.msky130_fd_pr__nfet_01v8.rbpd)	voltage
	265	v(onoise_total.m.x1.xm6.msky130_fd_pr__nfet_01v8.rbps)	voltage
	266	v(onoise_total.m.x1.xm6.msky130_fd_pr__nfet_01v8.rbsb)	voltage
	267	v(onoise_total.m.x1.xm6.msky130_fd_pr__nfet_01v8.rd)	voltage
	268	v(onoise_total.m.x1.xm6.msky130_fd_pr__nfet_01v8.rg)	voltage
	269	v(onoise_total.m.x1.xm6.msky130_fd_pr__nfet_01v8.rs)	voltage
	270	v(onoise_total.m.x1.xm7.msky130_fd_pr__pfet_01v8)	voltage
	271	v(onoise_total.m.x1.xm7.msky130_fd_pr__pfet_01v8.1overf)	voltage
	272	v(onoise_total.m.x1.xm7.msky130_fd_pr__pfet_01v8.id)	voltage
	273	v(onoise_total.m.x1.xm7.msky130_fd_pr__pfet_01v8.igb)	voltage
	274	v(onoise_total.m.x1.xm7.msky130_fd_pr__pfet_01v8.igd)	voltage
	275	v(onoise_total.m.x1.xm7.msky130_fd_pr__pfet_01v8.igs)	voltage
	276	v(onoise_total.m.x1.xm7.msky130_fd_pr__pfet_01v8.rbdb)	voltage
	277	v(onoise_total.m.x1.xm7.msky130_fd_pr__pfet_01v8.rbpb)	voltage
	278	v(onoise_total.m.x1.xm7.msky130_fd_pr__pfet_01v8.rbpd)	voltage
	279	v(onoise_total.m.x1.xm7.msky130_fd_pr__pfet_01v8.rbps)	voltage
	280	v(onoise_total.m.x1.xm7.msky130_fd_pr__pfet_01v8.rbsb)	voltage
	281	v(onoise_total.m.x1.xm7.msky130_fd_pr__pfet_01v8.rd)	voltage
	282	v(onoise_total.m.x1.xm7.msky130_fd_pr__pfet_01v8.rg)	voltage
	283	v(onoise_total.m.x1.xm7.msky130_fd_pr__pfet_01v8.rs)	voltage
	284	v(onoise_total.m.x1.xm8.msky130_fd_pr__pfet_01v8)	voltage
	285	v(onoise_total.m.x1.xm8.msky130_fd_pr__pfet_01v8.1overf)	voltage
	286	v(onoise_total.m.x1.xm8.msky130_fd_pr__pfet_01v8.id)	voltage
	287	v(onoise_total.m.x1.xm8.msky130_fd_pr__pfet_01v8.igb)	voltage
	288	v(onoise_total.m.x1.xm8.msky130_fd_pr__pfet_01v8.igd)	voltage
	289	v(onoise_total.m.x1.xm8.msky130_fd_pr__pfet_01v8.igs)	voltage
	290	v(onoise_total.m.x1.xm8.msky130_fd_pr__pfet_01v8.rbdb)	voltage
	291	v(onoise_total.m.x1.xm8.msky130_fd_pr__pfet_01v8.rbpb)	voltage
	292	v(onoise_total.m.x1.xm8.msky130_fd_pr__pfet_01v8.rbpd)	voltage
	293	v(onoise_total.m.x1.xm8.msky130_fd_pr__pfet_01v8.rbps)	voltage
	294	v(onoise_total.m.x1.xm8.msky130_fd_pr__pfet_01v8.rbsb)	voltage
	295	v(onoise_total.m.x1.xm8.msky130_fd_pr__pfet_01v8.rd)	voltage
	296	v(onoise_total.m.x1.xm8.msky130_fd_pr__pfet_01v8.rg)	voltage
	297	v(onoise_total.m.x1.xm8.msky130_fd_pr__pfet_01v8.rs)	voltage
	298	v(onoise_total_r.x1.r7)	voltage
	299	v(onoise_total_r.x1.r7_1overf)	voltage
	300	v(onoise_total_r.x1.r7_thermal)	voltage
	301	v(onoise_total_r1)	voltage
	302	v(onoise_total_r1_1overf)	voltage
	303	v(onoise_total_r1_thermal)	voltage
	304	v(onoise_total_r3)	voltage
	305	v(onoise_total_r3_1overf)	voltage
	306	v(onoise_total_r3_thermal)	voltage
Values:
 0	3.371903147380935e-09
	1.475452239504682e-04
	9.481357725040892e-04
	1.762991641693377e-04
	3.500000896255078e-01
	3.241762112813453e-01
	4.831996436983437e-01
	1.367106840024196e-01
	5.224954395644610e-05
	1.019290297829718e-03
	1.744678529026235e-04
	5.681520672055917e-01
	3.090008551455421e-01
	4.632313901646958e-01
	1.367106783945733e-01
	6.610829541334315e-06
	8.545796370672873e-04
	1.762989134966752e-04
	8.332268589332765e-01
	3.375690069236996e-01
	8.332285631591989e-01
	4.212104737881339e-01
	1.121968824845071e-05
	8.430760096631736e-04
	1.744676027126217e-04
	6.150749380017458e-01
	3.375690222613991e-01
	8.332285808618698e-01
	4.212104690063022e-01
	1.102672866016341e-04
	4.313852193423468e-03
	3.507627142151714e-04
	4.467672588489877e-01
	1.019407569098432e-01
	7.277727254459319e-01
	7.520551538481339e-01
	2.086625050755285e-04
	1.555914855628804e-02
	1.099264924128831e-03
	7.000299142026449e-01
	1.112144157050737e-01
	6.150774002256461e-01
	4.848052164236540e-01
	2.639929596563450e-04
	1.330392998477373e-02
	1.099256417782456e-03
	9.299678777478159e-01
	1.027164260705018e-01
	7.277727017786004e-01
	7.499849146950827e-01
	2.488481109583285e-05
	1.157584798311940e-03
	9.499888873664049e-05
	7.277725276500584e-01
	1.023906281529774e-01
	7.277727113167252e-01
	7.508512065961415e-01
	0.000000000000000e+00
	0.000000000000000e+00
	0.000000000000000e+00
	0.000000000000000e+00
	0.000000000000000e+00
	0.000000000000000e+00
	0.000000000000000e+00
	1.129384848276427e+00
	2.116294827512562e-02
	2.551726007427767e-04
	2.054771357323880e-02
	0.000000000000000e+00
	0.000000000000000e+00
	0.000000000000000e+00
	3.619223595094900e-03
	2.770144820955705e-03
	9.899353961884477e-04
	1.387271172568295e-03
	1.384333376283459e-03
	5.813133199537752e-05
	0.000000000000000e+00
	4.979296400755554e-07
	9.155159053285103e-02
	1.246493932251975e-03
	8.937249985160359e-02
	0.000000000000000e+00
	0.000000000000000e+00
	0.000000000000000e+00
	1.439038808063331e-02
	1.059389298956380e-02
	4.141272534925592e-03
	5.305742502317020e-03
	5.294037380109904e-03
	2.335200508521093e-04
	0.000000000000000e+00
	3.058701510383093e-06
	2.741394629961420e-02
	6.617384973979938e-04
	2.615743544175715e-02
	0.000000000000000e+00
	0.000000000000000e+00
	0.000000000000000e+00
	3.884216882000670e-03
	5.687638761495943e-03
	1.804368658238757e-03
	2.845804757786747e-03
	2.843154621713831e-03
	2.922163090429877e-05
	0.000000000000000e+00
	4.054731498536080e-06
	1.310514991552348e-01
	3.121087797626763e-03
	1.275460440482627e-01
	0.000000000000000e+00
	0.000000000000000e+00
	0.000000000000000e+00
	1.578105763944311e-02
	2.042640901106410e-02
	4.658213051461241e-03
	1.022033915708469e-02
	1.021085145166868e-02
	2.550860383219728e-04
	0.000000000000000e+00
	9.303348699162017e-06
	2.278290390018141e-02
	8.710262805092842e-05
	1.445418702652227e-02
	0.000000000000000e+00
	0.000000000000000e+00
	0.000000000000000e+00
	7.625130515358761e-03
	1.219870096677800e-02
	5.355739163551163e-03
	6.110007482499985e-03
	6.095748327852701e-03
	6.626931512578156e-05
	0.000000000000000e+00
	2.698782940386666e-06
	9.429972689626384e-01
	5.059619840569488e-02
	9.368618718962163e-01
	0.000000000000000e+00
	0.000000000000000e+00
	0.000000000000000e+00
	6.530908110435897e-02
	5.259810706070561e-02
	2.356628899265786e-02
	2.632502055551454e-02
	2.629055851662991e-02
	1.516474955228620e-03
	0.000000000000000e+00
	1.328150383681701e-05
	5.797290728074198e-01
	2.739637728144598e-03
	5.477831736130881e-01
	0.000000000000000e+00
	0.000000000000000e+00
	0.000000000000000e+00
	1.418483546136677e-01
	9.464225799487289e-02
	4.943952414962820e-02
	4.740702877295028e-02
	4.729257419286727e-02
	2.343865610736716e-03
	0.000000000000000e+00
	6.297576725631515e-06
	4.132307565665424e-02
	1.863120274076149e-04
	3.711126004331366e-02
	0.000000000000000e+00
	0.000000000000000e+00
	0.000000000000000e+00
	1.223088456407993e-02
	1.091579933953184e-02
	1.377461076246283e-03
	5.467595086329368e-03
	5.454678769636937e-03
	1.466930270825551e-04
	0.000000000000000e+00
	8.614194224743461e-07
	1.240279354807124e-01
	0.000000000000000e+00
	1.240279354807124e-01
	3.403665565744343e-04
	0.000000000000000e+00
	3.403665565744343e-04
	7.625747487970948e-02
	0.000000000000000e+00
	7.625747487970948e-02
	5.232252996498831e-04
	1.776641493793684e-04
	7.187311753144186e-05
	1.623917040823422e-04
	0.000000000000000e+00
	0.000000000000000e+00
	0.000000000000000e+00
	1.867204297044819e-06
	3.722593753024862e-06
	1.860855079413022e-06
	1.861297019668130e-06
	1.861296796041086e-06
	5.996571110767614e-08
	0.000000000000000e+00
	3.198533025272758e-09
	1.928020432561596e-04
	8.937623379491349e-05
	1.707334633718217e-04
	0.000000000000000e+00
	0.000000000000000e+00
	0.000000000000000e+00
	2.083449411483201e-06
	4.158263951567390e-06
	2.079234353387185e-06
	2.079132250559273e-06
	2.079131836004721e-06
	2.181855149906429e-08
	0.000000000000000e+00
	3.042420649869156e-09
	2.772343972198828e-04
	1.685877653478775e-04
	2.200298135891961e-04
	0.000000000000000e+00
	0.000000000000000e+00
	0.000000000000000e+00
	1.733690095803902e-06
	3.460777910172296e-06
	1.728098016886638e-06
	1.730389243811808e-06
	1.730388695015643e-06
	0.000000000000000e+00
	4.194757944313215e-09
	3.315537498558560e-04
	1.970273357512562e-04
	2.665949647316309e-04
	0.000000000000000e+00
	0.000000000000000e+00
	0.000000000000000e+00
	2.103865269975140e-06
	4.197077775368948e-06
	2.096009795517226e-06
	2.098539560436292e-06
	2.098538382437996e-06
	8.042850903919455e-09
	0.000000000000000e+00
	5.067106271391524e-09
	3.919075252190725e-05
	9.077188708794372e-06
	3.810330802889379e-05
	0.000000000000000e+00
	0.000000000000000e+00
	0.000000000000000e+00
	4.980089123770375e-07
	8.986855655035451e-07
	4.451560569389647e-07
	4.493438367846156e-07
	4.493424271653889e-07
	3.808137478740002e-09
	0.000000000000000e+00
	3.060269613798111e-10
	3.262592144572621e-05
	1.359444903120424e-05
	2.963827730777107e-05
	0.000000000000000e+00
	0.000000000000000e+00
	0.000000000000000e+00
	4.173952483405317e-07
	7.705121900471046e-07
	3.865493592978169e-07
	3.852648081976310e-07
	3.852531399783428e-07
	6.797075483950016e-09
	0.000000000000000e+00
	7.471896308157482e-10
	1.739746772794960e-05
	1.313756532512815e-06
	1.732955542617505e-05
	0.000000000000000e+00
	0.000000000000000e+00
	0.000000000000000e+00
	4.395820201273912e-07
	4.956443075224317e-07
	2.657847421557991e-07
	2.478879629754306e-07
	2.478002698960426e-07
	6.726466224317518e-09
	0.000000000000000e+00
	1.643016215638003e-10
	4.124978507948541e-05
	1.482604609778669e-05
	3.847288651487821e-05
	0.000000000000000e+00
	0.000000000000000e+00
	0.000000000000000e+00
	4.507768994570413e-07
	8.843767956178122e-07
	4.401617190043626e-07
	4.421890306778258e-07
	4.421881455054313e-07
	1.828742238277791e-09
	0.000000000000000e+00
	3.399712964757931e-10
	5.118539296113795e-05
	0.000000000000000e+00
	5.118539296113795e-05
	1.000261594697691e-04
	0.000000000000000e+00
	1.000261594697691e-04
	3.179586094437955e-05
	0.000000000000000e+00
	3.179586094437955e-05

